Fermi level: 8 Number of shells: 4
34.8299967
Fermi level: 8 Number of shells: 5
34.2661686
Fermi level: 8 Number of shells: 6
34.1841469
Fermi level: 8 Number of shells: 7
34.1525305
Fermi level: 8 Number of shells: 9
34.152248
Fermi level: 8 Number of shells: 13
