Fermi level: 12 Number of shells: 4
70.6738542
Fermi level: 12 Number of shells: 5
67.5699383
Fermi level: 12 Number of shells: 6
67.2969023
Fermi level: 12 Number of shells: 7
66.9347101
Fermi level: 12 Number of shells: 9
66.912283
Fermi level: 12 Number of shells: 13
