Fermi level: 14 Number of shells: 4
92.8525334
Fermi level: 14 Number of shells: 5
89.2103726
Fermi level: 14 Number of shells: 6
87.8563501
Fermi level: 14 Number of shells: 7
87.3366421
Fermi level: 14 Number of shells: 9
87.1329341
Fermi level: 14 Number of shells: 13
