Fermi level: 18 Number of shells: 4
145.919636
Fermi level: 18 Number of shells: 5
139.744234
Fermi level: 18 Number of shells: 6
134.886703
Fermi level: 18 Number of shells: 7
133.903566
Fermi level: 18 Number of shells: 9
132.871212
Fermi level: 18 Number of shells: 13
