Fermi level: 20 Number of shells: 4
177.963297
Fermi level: 20 Number of shells: 5
168.529684
Fermi level: 20 Number of shells: 6
161.339737
Fermi level: 20 Number of shells: 7
159.958681
Fermi level: 20 Number of shells: 9
158.225913
Fermi level: 20 Number of shells: 13
